   2   2   0   0
  0.8304395E+02  0.3868000E-09  0.3868185E-09  0.1281760E-08  0.5000000E-15
  1.000000000000000E-004
  CAR 
 unknown system                          
      7.52725807    -13.92076689  301     -2.04176824      1.00000000
    -13.921  0.0000E+00  0.0000E+00
    -13.849  0.0000E+00  0.0000E+00
    -13.778  0.0000E+00  0.0000E+00
    -13.706  0.0000E+00  0.0000E+00
    -13.635  0.0000E+00  0.0000E+00
    -13.563  0.0000E+00  0.0000E+00
    -13.492  0.0000E+00  0.0000E+00
    -13.420  0.0000E+00  0.0000E+00
    -13.349  0.0000E+00  0.0000E+00
    -13.277  0.0000E+00  0.0000E+00
    -13.206  0.0000E+00  0.0000E+00
    -13.134  0.0000E+00  0.0000E+00
    -13.063  0.0000E+00  0.0000E+00
    -12.991  0.2948E-10  0.2108E-11
    -12.920  0.1778E+01  0.1271E+00
    -12.848  0.1497E+01  0.2352E+00
    -12.777  0.1012E+01  0.3076E+00
    -12.705  0.8380E+00  0.3676E+00
    -12.634  0.6355E+00  0.4130E+00
    -12.562  0.5951E+00  0.4555E+00
    -12.491  0.5501E+00  0.4949E+00
    -12.419  0.5771E+00  0.5362E+00
    -12.348  0.5184E+00  0.5732E+00
    -12.276  0.3738E+00  0.6001E+00
    -12.205  0.4243E+00  0.6304E+00
    -12.133  0.4842E+00  0.6650E+00
    -12.062  0.3953E+00  0.6933E+00
    -11.990  0.3730E+00  0.7200E+00
    -11.919  0.3730E+00  0.7467E+00
    -11.847  0.3730E+00  0.7733E+00
    -11.776  0.3729E+00  0.8000E+00
    -11.704  0.3635E+00  0.8260E+00
    -11.633  0.2535E+00  0.8448E+00
    -11.561  0.3067E+00  0.8667E+00
    -11.490  0.3723E+00  0.8933E+00
    -11.418  0.3730E+00  0.9200E+00
    -11.347  0.3674E+00  0.9463E+00
    -11.276  0.2038E+00  0.9612E+00
    -11.204  0.3556E+00  0.9867E+00
    -11.133  0.3729E+00  0.1013E+01
    -11.061  0.3635E+00  0.1039E+01
    -10.990  0.1888E+00  0.1053E+01
    -10.918  0.3707E+00  0.1080E+01
    -10.847  0.3797E+00  0.1107E+01
    -10.775  0.4268E+00  0.1138E+01
    -10.704  0.2118E+01  0.1289E+01
    -10.632  0.1593E+01  0.1404E+01
    -10.561  0.1044E+01  0.1480E+01
    -10.489  0.7363E+00  0.1533E+01
    -10.418  0.7815E+00  0.1590E+01
    -10.346  0.7299E+00  0.1642E+01
    -10.275  0.5266E+00  0.1680E+01
    -10.203  0.6186E+00  0.1725E+01
    -10.132  0.6501E+00  0.1771E+01
    -10.060  0.5305E+00  0.1809E+01
     -9.989  0.4239E+00  0.1840E+01
     -9.917  0.5572E+00  0.1880E+01
     -9.846  0.5544E+00  0.1920E+01
     -9.774  0.5210E+00  0.1957E+01
     -9.703  0.4265E+00  0.1988E+01
     -9.631  0.7257E+00  0.2040E+01
     -9.560  0.5555E+00  0.2080E+01
     -9.488  0.5585E+00  0.2120E+01
     -9.417  0.5708E+00  0.2161E+01
     -9.345  0.5160E+00  0.2198E+01
     -9.274  0.6977E+00  0.2248E+01
     -9.202  0.8675E+00  0.2310E+01
     -9.131  0.1160E+01  0.2393E+01
     -9.059  0.3818E+01  0.2667E+01
     -8.988  0.2034E+01  0.2814E+01
     -8.916  0.4451E+00  0.2846E+01
     -8.845  0.1757E+00  0.2859E+01
     -8.773  0.2934E+00  0.2880E+01
     -8.702  0.2731E+00  0.2900E+01
     -8.630  0.2798E+00  0.2920E+01
     -8.559  0.3483E+00  0.2945E+01
     -8.487  0.2483E-01  0.2947E+01
     -8.416  0.3728E+00  0.2973E+01
     -8.344  0.1790E+00  0.2986E+01
     -8.273  0.1940E+00  0.3000E+01
     -8.201  0.3698E+00  0.3026E+01
     -8.130  0.3439E-04  0.3027E+01
     -8.058  0.3730E+00  0.3053E+01
     -7.987  0.1992E-01  0.3055E+01
     -7.915  0.3531E+00  0.3080E+01
     -7.844  0.1358E+00  0.3090E+01
     -7.772  0.2371E+00  0.3107E+01
     -7.701  0.1843E+00  0.3120E+01
     -7.629  0.1847E+00  0.3133E+01
     -7.558  0.1917E+00  0.3147E+01
     -7.486  0.1810E+00  0.3160E+01
     -7.415  0.1932E+00  0.3174E+01
     -7.343  0.1798E+00  0.3187E+01
     -7.272  0.1902E+00  0.3200E+01
     -7.200  0.1828E+00  0.3213E+01
     -7.129  0.1873E+00  0.3227E+01
     -7.057  0.1857E+00  0.3240E+01
     -6.986  0.1865E+00  0.3253E+01
     -6.914  0.1865E+00  0.3267E+01
     -6.843  0.1865E+00  0.3280E+01
     -6.771  0.1865E+00  0.3293E+01
     -6.700  0.1863E+00  0.3307E+01
     -6.628  0.1865E+00  0.3320E+01
     -6.557  0.1853E+00  0.3333E+01
     -6.485  0.1848E+00  0.3347E+01
     -6.414  0.1794E+00  0.3359E+01
     -6.342  0.1365E+00  0.3370E+01
     -6.271  0.1931E+01  0.3508E+01
     -6.199  0.1187E+01  0.3593E+01
     -6.128  0.1022E+01  0.3666E+01
     -6.056  0.6945E+00  0.3716E+01
     -5.985  0.8867E+00  0.3779E+01
     -5.914  0.6503E+00  0.3825E+01
     -5.842  0.7711E+00  0.3882E+01
     -5.771  0.4898E+00  0.3918E+01
     -5.699  0.6859E+00  0.3967E+01
     -5.628  0.4724E+00  0.4001E+01
     -5.556  0.7297E+00  0.4053E+01
     -5.485  0.3850E+00  0.4081E+01
     -5.413  0.8546E+00  0.4142E+01
     -5.342  0.6206E+00  0.4186E+01
     -5.270  0.4010E+00  0.4216E+01
     -5.199  0.2773E+01  0.4414E+01
     -5.127  0.3899E+01  0.4694E+01
     -5.056  0.4801E+00  0.4729E+01
     -4.984  0.2515E+00  0.4747E+01
     -4.913  0.3617E+00  0.4773E+01
     -4.841  0.3944E+00  0.4802E+01
     -4.770  0.4855E+00  0.4836E+01
     -4.698  0.2294E+00  0.4854E+01
     -4.627  0.5488E+00  0.4893E+01
     -4.555  0.1334E+01  0.4989E+01
     -4.484  0.2010E+01  0.5133E+01
     -4.412  0.3168E+01  0.5360E+01
     -4.341  0.1603E+01  0.5474E+01
     -4.269  0.1549E+01  0.5585E+01
     -4.198  0.1266E+01  0.5677E+01
     -4.126  0.1141E+01  0.5759E+01
     -4.055  0.1105E+01  0.5839E+01
     -3.983  0.1080E+01  0.5918E+01
     -3.912  0.9348E+00  0.5986E+01
     -3.840  0.9594E+00  0.6055E+01
     -3.769  0.1176E+01  0.6139E+01
     -3.697  0.1002E+01  0.6211E+01
     -3.626  0.1125E+01  0.6294E+01
     -3.554  0.9142E+00  0.6360E+01
     -3.483  0.1160E+01  0.6443E+01
     -3.411  0.8498E+00  0.6505E+01
     -3.340  0.1126E+01  0.6585E+01
     -3.268  0.1229E+01  0.6675E+01
     -3.197  0.1449E+01  0.6780E+01
     -3.125  0.1552E+01  0.6891E+01
     -3.054  0.4496E+01  0.7213E+01
     -2.982  0.1848E+01  0.7347E+01
     -2.911  0.1107E+01  0.7427E+01
     -2.839  0.8711E+00  0.7489E+01
     -2.768  0.7645E+00  0.7544E+01
     -2.696  0.7853E+00  0.7600E+01
     -2.625  0.7349E+00  0.7653E+01
     -2.553  0.6542E+00  0.7701E+01
     -2.482  0.5034E+00  0.7737E+01
     -2.410  0.6711E+00  0.7785E+01
     -2.339  0.5890E+00  0.7827E+01
     -2.267  0.5712E+00  0.7868E+01
     -2.196  0.5385E+00  0.7906E+01
     -2.124  0.4627E+00  0.7939E+01
     -2.053  0.5213E+00  0.7977E+01
     -1.981  0.8922E+00  0.8040E+01
     -1.910  0.5644E+00  0.8081E+01
     -1.838  0.6082E+00  0.8124E+01
     -1.767  0.6723E+00  0.8172E+01
     -1.695  0.6903E+00  0.8223E+01
     -1.624  0.7707E+00  0.8278E+01
     -1.552  0.8486E+00  0.8340E+01
     -1.481  0.1478E+01  0.8446E+01
     -1.409  0.4960E+01  0.8801E+01
     -1.338  0.5534E+00  0.8841E+01
     -1.266  0.3884E+00  0.8869E+01
     -1.195  0.3321E+00  0.8893E+01
     -1.123  0.3732E+00  0.8920E+01
     -1.052  0.3744E+00  0.8947E+01
     -0.980  0.2484E+00  0.8965E+01
     -0.909  0.4725E+00  0.8999E+01
     -0.837  0.3729E+00  0.9027E+01
     -0.766  0.2645E+00  0.9046E+01
     -0.694  0.2059E+01  0.9193E+01
     -0.623  0.1303E+01  0.9287E+01
     -0.551  0.1059E+01  0.9363E+01
     -0.480  0.8778E+00  0.9426E+01
     -0.409  0.8055E+00  0.9484E+01
     -0.337  0.8705E+00  0.9547E+01
     -0.266  0.6096E+00  0.9590E+01
     -0.194  0.7827E+00  0.9646E+01
     -0.123  0.8430E+00  0.9706E+01
     -0.051  0.7291E+00  0.9759E+01
      0.020  0.1322E+01  0.9855E+01
      0.092  0.1202E+01  0.9941E+01
      0.163  0.1056E+01  0.1002E+02
      0.235  0.1203E+01  0.1010E+02
      0.306  0.1315E+01  0.1020E+02
      0.378  0.3726E+01  0.1046E+02
      0.449  0.3467E+01  0.1071E+02
      0.521  0.3593E+01  0.1097E+02
      0.592  0.1321E+01  0.1107E+02
      0.664  0.3728E+00  0.1109E+02
      0.735  0.3396E+00  0.1112E+02
      0.807  0.2819E+00  0.1114E+02
      0.878  0.4678E+00  0.1117E+02
      0.950  0.2600E+00  0.1119E+02
      1.021  0.3264E+00  0.1121E+02
      1.093  0.2382E+01  0.1138E+02
      1.164  0.4366E+01  0.1170E+02
      1.236  0.1610E+01  0.1181E+02
      1.307  0.1258E+01  0.1190E+02
      1.379  0.1039E+01  0.1198E+02
      1.450  0.9935E+00  0.1205E+02
      1.522  0.8737E+00  0.1211E+02
      1.593  0.8686E+00  0.1217E+02
      1.665  0.7560E+00  0.1223E+02
      1.736  0.7420E+00  0.1228E+02
      1.808  0.8814E+00  0.1235E+02
      1.879  0.6855E+00  0.1240E+02
      1.951  0.1720E+01  0.1252E+02
      2.022  0.2025E+01  0.1267E+02
      2.094  0.1539E+01  0.1278E+02
      2.165  0.1334E+01  0.1287E+02
      2.237  0.1293E+01  0.1297E+02
      2.308  0.1162E+01  0.1305E+02
      2.380  0.2350E+01  0.1322E+02
      2.451  0.2491E+01  0.1340E+02
      2.523  0.1473E+01  0.1350E+02
      2.594  0.2611E+01  0.1369E+02
      2.666  0.3347E+01  0.1393E+02
      2.737  0.6603E+01  0.1441E+02
      2.809  0.4320E+01  0.1472E+02
      2.880  0.1791E+01  0.1484E+02
      2.952  0.2507E+01  0.1502E+02
      3.023  0.1947E+01  0.1516E+02
      3.095  0.2247E+01  0.1532E+02
      3.166  0.1256E+01  0.1542E+02
      3.238  0.2133E+01  0.1557E+02
      3.309  0.1923E+01  0.1571E+02
      3.381  0.2740E+01  0.1590E+02
      3.452  0.2471E+01  0.1608E+02
      3.524  0.1712E+01  0.1620E+02
      3.595  0.1005E+01  0.1627E+02
      3.667  0.1056E+01  0.1635E+02
      3.738  0.1256E+01  0.1644E+02
      3.810  0.9749E+00  0.1651E+02
      3.881  0.3693E+01  0.1677E+02
      3.953  0.1452E+01  0.1688E+02
      4.024  0.1798E+01  0.1701E+02
      4.096  0.3424E+01  0.1726E+02
      4.167  0.2786E+01  0.1746E+02
      4.239  0.3557E+01  0.1771E+02
      4.310  0.4061E+01  0.1800E+02
      4.382  0.6287E+01  0.1845E+02
      4.453  0.4867E+01  0.1880E+02
      4.525  0.6278E+01  0.1926E+02
      4.596  0.3854E+01  0.1954E+02
      4.668  0.1229E+01  0.1962E+02
      4.739  0.1111E+01  0.1970E+02
      4.811  0.1346E+01  0.1980E+02
      4.882  0.5497E+00  0.1984E+02
      4.953  0.5004E+00  0.1988E+02
      5.025  0.4949E+00  0.1991E+02
      5.096  0.2933E+01  0.2012E+02
      5.168  0.1373E+01  0.2022E+02
      5.239  0.2160E+01  0.2038E+02
      5.311  0.2252E+01  0.2054E+02
      5.382  0.3141E+01  0.2076E+02
      5.454  0.1721E+01  0.2089E+02
      5.525  0.1358E+01  0.2098E+02
      5.597  0.1553E+01  0.2109E+02
      5.668  0.1830E+01  0.2123E+02
      5.740  0.2148E+01  0.2138E+02
      5.811  0.2520E+01  0.2156E+02
      5.883  0.3592E+01  0.2182E+02
      5.954  0.3340E+01  0.2206E+02
      6.026  0.2725E+01  0.2226E+02
      6.097  0.2626E+01  0.2244E+02
      6.169  0.6536E+01  0.2291E+02
      6.240  0.3942E+01  0.2319E+02
      6.312  0.3127E+01  0.2342E+02
      6.383  0.3438E+01  0.2367E+02
      6.455  0.2031E+01  0.2381E+02
      6.526  0.6197E+00  0.2386E+02
      6.598  0.1997E+01  0.2400E+02
      6.669  0.0000E+00  0.2400E+02
      6.741  0.0000E+00  0.2400E+02
      6.812  0.0000E+00  0.2400E+02
      6.884  0.0000E+00  0.2400E+02
      6.955  0.0000E+00  0.2400E+02
      7.027  0.0000E+00  0.2400E+02
      7.098  0.0000E+00  0.2400E+02
      7.170  0.0000E+00  0.2400E+02
      7.241  0.0000E+00  0.2400E+02
      7.313  0.0000E+00  0.2400E+02
      7.384  0.0000E+00  0.2400E+02
      7.456  0.0000E+00  0.2400E+02
      7.527  0.0000E+00  0.2400E+02
