    2    2    1    1
  0.8304395E+02  0.3868000E-09  0.3868185E-09  0.1281760E-08  0.5000000E-15
  1.000000000000000E-004
  CAR 
 unknown system                          
    8  150   12
 
  0.5000000E+00  0.5000000E+00  0.0000000E+00  0.6666667E-02
   1      -10.726599
   2       -9.057567
   3       -4.455859
   4       -3.068699
   5       -1.427744
   6       -0.734034
   7        3.404710
   8        4.349254
   9        4.516614
  10        5.361339
  11        5.855807
  12        6.205248
 
  0.5034000E+00  0.4965986E+00  0.0000000E+00  0.6666667E-02
   1      -10.726134
   2       -9.057559
   3       -4.458862
   4       -3.067875
   5       -1.427639
   6       -0.730040
   7        3.404285
   8        4.349612
   9        4.511862
  10        5.366510
  11        5.856274
  12        6.202706
 
  0.5068000E+00  0.4931971E+00  0.0000000E+00  0.6666667E-02
   1      -10.724837
   2       -9.057611
   3       -4.468118
   4       -3.065559
   5       -1.427757
   6       -0.718788
   7        3.401905
   8        4.350710
   9        4.497491
  10        5.381518
  11        5.857660
  12        6.203569
 
  0.5102000E+00  0.4897957E+00  0.0000000E+00  0.6666667E-02
   1      -10.722652
   2       -9.057680
   3       -4.483376
   4       -3.061736
   5       -1.427917
   6       -0.699603
   7        3.397814
   8        4.352357
   9        4.474045
  10        5.405048
  11        5.859922
  12        6.205824
 
  0.5136000E+00  0.4863943E+00  0.0000000E+00  0.6666667E-02
   1      -10.719637
   2       -9.057838
   3       -4.504404
   4       -3.056533
   5       -1.428237
   6       -0.673512
   7        3.391922
   8        4.354638
   9        4.443749
  10        5.435468
  11        5.863105
  12        6.210344
 
  0.5170000E+00  0.4829929E+00  0.0000000E+00  0.6666667E-02
   1      -10.715762
   2       -9.058028
   3       -4.530853
   4       -3.050030
   5       -1.428667
   6       -0.639812
   7        3.383881
   8        4.357536
   9        4.408590
  10        5.471096
  11        5.867197
  12        6.212314
 
  0.5204000E+00  0.4795914E+00  0.0000000E+00  0.6666667E-02
   1      -10.711027
   2       -9.058287
   3       -4.562437
   4       -3.042336
   5       -1.429219
   6       -0.599272
   7        3.373420
   8        4.361008
   9        4.370393
  10        5.510375
  11        5.872199
  12        6.218070
 
  0.5238000E+00  0.4761900E+00  0.0000000E+00  0.6666667E-02
   1      -10.705431
   2       -9.058625
   3       -4.598529
   4       -3.033560
   5       -1.429899
   6       -0.552036
   7        3.360523
   8        4.330816
   9        4.365155
  10        5.552014
  11        5.878111
  12        6.222010
 
  0.5272000E+00  0.4727886E+00  0.0000000E+00  0.6666667E-02
   1      -10.698975
   2       -9.059092
   3       -4.638881
   4       -3.023808
   5       -1.430729
   6       -0.499002
   7        3.344723
   8        4.291210
   9        4.369905
  10        5.594966
  11        5.884922
  12        6.227931
 
  0.5306000E+00  0.4693871E+00  0.0000000E+00  0.6666667E-02
   1      -10.691658
   2       -9.059643
   3       -4.682799
   4       -3.013164
   5       -1.431719
   6       -0.439350
   7        3.325825
   8        4.252918
   9        4.375277
  10        5.638466
  11        5.892652
  12        6.235017
 
  0.5340000E+00  0.4659857E+00  0.0000000E+00  0.6666667E-02
   1      -10.683481
   2       -9.060340
   3       -4.730007
   4       -3.001720
   5       -1.432900
   6       -0.374187
   7        3.303412
   8        4.216783
   9        4.381219
  10        5.681885
  11        5.901291
  12        6.242614
 
  0.5374000E+00  0.4625843E+00  0.0000000E+00  0.6666667E-02
   1      -10.674445
   2       -9.061245
   3       -4.780166
   4       -2.989539
   5       -1.434316
   6       -0.304067
   7        3.277040
   8        4.182784
   9        4.387701
  10        5.724646
  11        5.910831
  12        6.254913
 
  0.5408000E+00  0.4591829E+00  0.0000000E+00  0.6666667E-02
   1      -10.664544
   2       -9.062316
   3       -4.832619
   4       -2.976648
   5       -1.435951
   6       -0.228823
   7        3.247071
   8        4.153261
   9        4.394746
  10        5.766731
  11        5.921298
  12        6.258846
 
  0.5442000E+00  0.4557814E+00  0.0000000E+00  0.6666667E-02
   1      -10.653792
   2       -9.063635
   3       -4.887174
   4       -2.963127
   5       -1.437861
   6       -0.149013
   7        3.212854
   8        4.127233
   9        4.402235
  10        5.807697
  11        5.932637
  12        6.268077
 
  0.5476000E+00  0.4523800E+00  0.0000000E+00  0.6666667E-02
   1      -10.642178
   2       -9.065206
   3       -4.943319
   4       -2.948968
   5       -1.440063
   6       -0.064928
   7        3.175344
   8        4.105821
   9        4.410292
  10        5.847613
  11        5.944892
  12        6.277925
 
  0.5510000E+00  0.4489786E+00  0.0000000E+00  0.6666667E-02
   1      -10.629701
   2       -9.067110
   3       -5.000913
   4       -2.934179
   5       -1.442637
   6        0.022769
   7        3.134181
   8        4.088710
   9        4.418856
  10        5.886406
  11        5.958056
  12        6.293548
 
  0.5544000E+00  0.4455771E+00  0.0000000E+00  0.6666667E-02
   1      -10.616371
   2       -9.069337
   3       -5.059362
   4       -2.918799
   5       -1.445545
   6        0.114525
   7        3.090204
   8        4.075519
   9        4.427806
  10        5.923867
  11        5.972125
  12        6.298683
 
  0.5578000E+00  0.4421757E+00  0.0000000E+00  0.6666667E-02
   1      -10.602183
   2       -9.071958
   3       -5.118504
   4       -2.902817
   5       -1.448862
   6        0.209722
   7        3.043608
   8        4.066156
   9        4.437143
  10        5.960364
  11        5.987098
  12        6.310720
 
  0.5612000E+00  0.4387743E+00  0.0000000E+00  0.6666667E-02
   1      -10.587106
   2       -9.074997
   3       -5.178150
   4       -2.886231
   5       -1.452579
   6        0.308184
   7        2.994798
   8        4.060314
   9        4.446860
  10        5.995146
  11        6.002948
  12        6.318967
 
  0.5646000E+00  0.4353729E+00  0.0000000E+00  0.6666667E-02
   1      -10.571205
   2       -9.078554
   3       -5.237870
   4       -2.869036
   5       -1.456844
   6        0.409570
   7        2.944362
   8        4.057753
   9        4.456821
  10        6.019697
  11        6.028975
  12        6.328029
 
  0.5680000E+00  0.4319714E+00  0.0000000E+00  0.6666667E-02
   1      -10.554448
   2       -9.082660
   3       -5.297508
   4       -2.851226
   5       -1.461649
   6        0.513736
   7        2.892698
   8        4.058137
   9        4.467005
  10        6.037345
  11        6.061200
  12        6.335267
 
  0.5714000E+00  0.4285700E+00  0.0000000E+00  0.6666667E-02
   1      -10.536835
   2       -9.087350
   3       -5.356829
   4       -2.832782
   5       -1.467038
   6        0.621012
   7        2.840488
   8        4.061387
   9        4.477357
  10        6.055865
  11        6.091618
  12        6.338088
 
  0.5748000E+00  0.4251686E+00  0.0000000E+00  0.6666667E-02
   1      -10.518375
   2       -9.092780
   3       -5.415726
   4       -2.813732
   5       -1.473194
   6        0.730120
   7        2.787235
   8        4.066368
   9        4.487597
  10        6.075221
  11        6.119569
  12        6.328870
 
  0.5782000E+00  0.4217671E+00  0.0000000E+00  0.6666667E-02
   1      -10.499070
   2       -9.098914
   3       -5.473837
   4       -2.794097
   5       -1.480064
   6        0.841529
   7        2.734287
   8        4.073771
   9        4.497817
  10        6.095397
  11        6.140783
  12        6.309023
 
  0.5816000E+00  0.4183657E+00  0.0000000E+00  0.6666667E-02
   1      -10.478905
   2       -9.105880
   3       -5.531189
   4       -2.773752
   5       -1.487562
   6        0.954629
   7        2.681429
   8        4.083166
   9        4.508039
  10        6.116401
  11        6.161187
  12        6.284477
 
  0.5850000E+00  0.4149643E+00  0.0000000E+00  0.6666667E-02
   1      -10.457877
   2       -9.113653
   3       -5.587297
   4       -2.752750
   5       -1.495834
   6        1.070173
   7        2.629333
   8        4.094406
   9        4.518035
  10        6.137620
  11        6.151696
  12        6.232760
 
  0.5884000E+00  0.4115629E+00  0.0000000E+00  0.6666667E-02
   1      -10.435994
   2       -9.122341
   3       -5.642129
   4       -2.731070
   5       -1.504943
   6        1.188017
   7        2.578128
   8        4.107384
   9        4.527658
  10        6.124301
  11        6.154237
  12        6.182691
 
  0.5918000E+00  0.4081614E+00  0.0000000E+00  0.6666667E-02
   1      -10.413262
   2       -9.132046
   3       -5.695574
   4       -2.708737
   5       -1.514974
   6        1.307151
   7        2.527891
   8        4.121590
   9        4.536687
  10        6.088007
  11        6.120237
  12        6.189028
 
  0.5952000E+00  0.4047600E+00  0.0000000E+00  0.6666667E-02
   1      -10.389690
   2       -9.142845
   3       -5.747517
   4       -2.685735
   5       -1.525973
   6        1.427708
   7        2.478848
   8        4.136929
   9        4.544913
  10        6.032145
  11        6.061943
  12        6.212255
 
  0.5986000E+00  0.4013586E+00  0.0000000E+00  0.6666667E-02
   1      -10.365258
   2       -9.154778
   3       -5.797756
   4       -2.662050
   5       -1.538032
   6        1.549953
   7        2.431081
   8        4.153507
   9        4.552147
  10        5.975620
  11        5.999604
  12        6.237307
 
  0.6020000E+00  0.3979571E+00  0.0000000E+00  0.6666667E-02
   1      -10.339978
   2       -9.167900
   3       -5.846089
   4       -2.637681
   5       -1.551102
   6        1.673614
   7        2.385134
   8        4.171100
   9        4.558167
  10        5.914181
  11        5.935560
  12        6.263373
 
  0.6054000E+00  0.3945557E+00  0.0000000E+00  0.6666667E-02
   1      -10.313850
   2       -9.182295
   3       -5.892455
   4       -2.612624
   5       -1.565286
   6        1.798573
   7        2.340938
   8        4.189558
   9        4.562644
  10        5.851621
  11        5.871394
  12        6.290305
 
  0.6088000E+00  0.3911543E+00  0.0000000E+00  0.6666667E-02
   1      -10.286875
   2       -9.198023
   3       -5.936737
   4       -2.586876
   5       -1.580631
   6        1.924727
   7        2.298629
   8        4.208740
   9        4.565244
  10        5.786537
  11        5.806915
  12        6.317699
 
  0.6122000E+00  0.3877529E+00  0.0000000E+00  0.6666667E-02
   1      -10.259056
   2       -9.215150
   3       -5.978885
   4       -2.560438
   5       -1.597186
   6        2.051880
   7        2.258216
   8        4.228348
   9        4.565309
  10        5.720986
  11        5.743209
  12        6.345737
 
  0.6156000E+00  0.3843514E+00  0.0000000E+00  0.6666667E-02
   1      -10.230366
   2       -9.233671
   3       -6.018650
   4       -2.533218
   5       -1.614941
   6        2.180339
   7        2.220680
   8        4.248792
   9        4.563150
  10        5.655889
  11        5.680722
  12        6.372699
 
  0.6190000E+00  0.3809500E+00  0.0000000E+00  0.6666667E-02
   1      -10.200864
   2       -9.253759
   3       -6.056109
   4       -2.505385
   5       -1.634022
   6        2.184648
   7        2.309151
   8        4.268984
   9        4.557688
  10        5.591251
  11        5.620627
  12        6.398688
 
  0.6224000E+00  0.3775486E+00  0.0000000E+00  0.6666667E-02
   1      -10.170510
   2       -9.275345
   3       -6.091067
   4       -2.476849
   5       -1.654407
   6        2.150957
   7        2.438918
   8        4.289286
   9        4.548800
  10        5.526563
  11        5.562941
  12        6.410721
 
  0.6258000E+00  0.3741471E+00  0.0000000E+00  0.6666667E-02
   1      -10.139292
   2       -9.298536
   3       -6.123547
   4       -2.447555
   5       -1.676151
   6        2.119510
   7        2.569025
   8        4.309671
   9        4.536117
  10        5.463082
  11        5.508001
  12        6.397801
 
  0.6292000E+00  0.3707457E+00  0.0000000E+00  0.6666667E-02
   1      -10.107225
   2       -9.323252
   3       -6.153391
   4       -2.417594
   5       -1.699220
   6        2.090674
   7        2.699800
   8        4.329043
   9        4.519527
  10        5.402015
  11        5.456587
  12        6.366544
 
  0.6326000E+00  0.3673443E+00  0.0000000E+00  0.6666667E-02
   1      -10.074349
   2       -9.349580
   3       -6.180628
   4       -2.386960
   5       -1.723655
   6        2.064242
   7        2.830610
   8        4.347130
   9        4.498295
  10        5.342350
  11        5.407240
  12        6.330491
 
  0.6360000E+00  0.3639429E+00  0.0000000E+00  0.6666667E-02
   1      -10.040635
   2       -9.377509
   3       -6.205215
   4       -2.355628
   5       -1.749459
   6        2.040320
   7        2.961240
   8        4.363427
   9        4.472747
  10        5.284959
  11        5.360941
  12        6.293253
 
  0.6394000E+00  0.3605414E+00  0.0000000E+00  0.6666667E-02
   1      -10.006084
   2       -9.407033
   3       -6.227135
   4       -2.323601
   5       -1.776630
   6        2.018936
   7        3.091278
   8        4.377167
   9        4.443107
  10        5.231654
  11        5.317295
  12        6.257544
 
  0.6428000E+00  0.3571400E+00  0.0000000E+00  0.6666667E-02
   1       -9.970697
   2       -9.438138
   3       -6.246379
   4       -2.290879
   5       -1.805160
   6        2.000106
   7        3.220132
   8        4.387383
   9        4.409887
  10        5.182925
  11        5.275914
  12        6.224147
 
  0.6462000E+00  0.3537386E+00  0.0000000E+00  0.6666667E-02
   1       -9.934476
   2       -9.470799
   3       -6.262953
   4       -2.257466
   5       -1.835034
   6        1.983838
   7        3.346924
   8        4.373851
   9        4.393022
  10        5.139884
  11        5.236431
  12        6.194255
 
  0.6496000E+00  0.3503371E+00  0.0000000E+00  0.6666667E-02
   1       -9.897358
   2       -9.504954
   3       -6.276844
   4       -2.223302
   5       -1.866194
   6        1.970316
   7        3.470498
   8        4.336783
   9        4.392806
  10        5.103993
  11        5.198754
  12        6.168594
 
  0.6530000E+00  0.3469357E+00  0.0000000E+00  0.6666667E-02
   1       -9.859483
   2       -9.540661
   3       -6.288153
   4       -2.188523
   5       -1.898694
   6        1.959113
   7        3.587636
   8        4.300012
   9        4.385380
  10        5.076100
  11        5.162445
  12        6.147357
 
  0.6564000E+00  0.3435343E+00  0.0000000E+00  0.6666667E-02
   1       -9.820763
   2       -9.577742
   3       -6.296818
   4       -2.153029
   5       -1.932444
   6        1.950598
   7        3.695932
   8        4.268082
   9        4.370312
  10        5.057498
  11        5.128372
  12        6.131052
 
  0.6598000E+00  0.3401329E+00  0.0000000E+00  0.6666667E-02
   1       -9.781225
   2       -9.616211
   3       -6.302958
   4       -2.116885
   5       -1.967415
   6        1.944484
   7        3.785297
   8        4.247352
   9        4.347093
  10        5.047928
  11        5.097380
  12        6.119744
 
  0.6632000E+00  0.3367314E+00  0.0000000E+00  0.6666667E-02
   1       -9.740872
   2       -9.656050
   3       -6.306601
   4       -2.080054
   5       -2.003686
   6        1.940587
   7        3.844983
   8        4.248400
   9        4.316154
  10        5.047300
  11        5.071558
  12        6.113074
 
  0.6666000E+00  0.3333300E+00  0.0000000E+00  0.6666667E-02
   1       -9.700549
   2       -9.696215
   3       -6.307791
   4       -2.043029
   5       -2.040507
   6        1.939381
   7        3.864623
   8        4.276861
   9        4.278739
  10        5.054075
  11        5.054949
  12        6.110932
 
  0.6666000E+00  0.3333300E+00  0.0000000E+00  0.6666667E-02
   1       -9.700549
   2       -9.696215
   3       -6.307791
   4       -2.043029
   5       -2.040507
   6        1.939381
   7        3.864622
   8        4.276860
   9        4.278738
  10        5.054074
  11        5.054946
  12        6.110926
 
  0.6529959E+00  0.3265273E+00  0.0000000E+00  0.6666667E-02
   1       -9.785934
   2       -9.611330
   3       -6.303220
   4       -2.120739
   5       -1.963549
   6        1.943850
   7        3.813192
   8        4.185061
   9        4.369048
  10        5.069390
  11        5.088772
  12        6.118173
 
  0.6393918E+00  0.3197247E+00  0.0000000E+00  0.6666667E-02
   1       -9.875454
   2       -9.523042
   3       -6.289626
   4       -2.202282
   5       -1.883800
   6        1.958197
   7        3.713436
   8        4.078961
   9        4.402123
  10        5.142402
  11        5.179967
  12        6.136000
 
  0.6257878E+00  0.3129220E+00  0.0000000E+00  0.6666667E-02
   1       -9.968459
   2       -9.431601
   3       -6.267571
   4       -2.287184
   5       -1.801706
   6        1.980655
   7        3.599777
   8        3.965641
   9        4.360768
  10        5.208862
  11        5.373139
  12        6.156271
 
  0.6121837E+00  0.3061194E+00  0.0000000E+00  0.6666667E-02
   1      -10.064351
   2       -9.336865
   3       -6.237631
   4       -2.374949
   5       -1.717141
   6        2.011255
   7        3.480856
   8        3.848544
   9        4.278136
  10        5.284332
  11        5.606657
  12        6.166330
 
  0.5985796E+00  0.2993167E+00  0.0000000E+00  0.6666667E-02
   1      -10.162606
   2       -9.238961
   3       -6.200407
   4       -2.465105
   5       -1.630240
   6        2.049242
   7        3.359398
   8        3.729873
   9        4.175990
  10        5.365868
  11        5.853151
  12        6.148599
 
  0.5849755E+00  0.2925141E+00  0.0000000E+00  0.6666667E-02
   1      -10.262573
   2       -9.137843
   3       -6.156426
   4       -2.557123
   5       -1.541054
   6        2.094123
   7        3.238051
   8        3.611379
   9        4.065069
  10        5.452066
  11        6.079049
  12        6.092217
 
  0.5713714E+00  0.2857114E+00  0.0000000E+00  0.6666667E-02
   1      -10.363790
   2       -9.033514
   3       -6.106166
   4       -2.650599
   5       -1.449589
   6        2.145038
   7        3.117497
   8        3.494322
   9        3.950271
  10        5.540733
  11        5.931948
  12        6.003906
 
  0.5577673E+00  0.2789088E+00  0.0000000E+00  0.6666667E-02
   1      -10.465749
   2       -8.926028
   3       -6.050169
   4       -2.745004
   5       -1.356211
   6        2.201168
   7        2.998780
   8        3.379905
   9        3.834303
  10        5.623259
  11        5.797079
  12        5.895267
 
  0.5441633E+00  0.2721061E+00  0.0000000E+00  0.6666667E-02
   1      -10.568059
   2       -8.815433
   3       -5.988916
   4       -2.839989
   5       -1.260958
   6        2.261118
   7        2.881906
   8        3.268792
   9        3.718807
  10        5.609389
  11        5.764202
  12        5.776735
 
  0.5305592E+00  0.2653035E+00  0.0000000E+00  0.6666667E-02
   1      -10.670372
   2       -8.701742
   3       -5.922815
   4       -2.935259
   5       -1.164025
   6        2.322588
   7        2.767307
   8        3.163053
   9        3.604865
  10        5.484089
  11        5.653729
  12        5.847509
 
  0.5169551E+00  0.2585008E+00  0.0000000E+00  0.6666667E-02
   1      -10.772265
   2       -8.584879
   3       -5.852169
   4       -3.030307
   5       -1.065495
   6        2.383229
   7        2.655646
   8        3.065968
   9        3.493715
  10        5.351049
  11        5.529654
  12        5.943047
 
  0.5033510E+00  0.2516982E+00  0.0000000E+00  0.6666667E-02
   1      -10.873437
   2       -8.465032
   3       -5.777486
   4       -3.124846
   5       -0.965709
   6        2.435919
   7        2.546372
   8        2.983016
   9        3.385581
  10        5.219881
  11        5.406023
  12        6.039763
 
  0.4897469E+00  0.2448955E+00  0.0000000E+00  0.6666667E-02
   1      -10.973660
   2       -8.342112
   3       -5.698978
   4       -3.218657
   5       -0.864926
   6        2.440478
   7        2.468523
   8        2.927239
   9        3.281335
  10        5.092084
  11        5.284000
  12        6.134322
 
  0.4761429E+00  0.2380929E+00  0.0000000E+00  0.6666667E-02
   1      -11.072642
   2       -8.216303
   3       -5.617044
   4       -3.311404
   5       -0.763509
   6        2.337689
   7        2.465031
   8        2.913500
   9        3.181513
  10        4.968247
  11        5.164397
  12        6.225111
 
  0.4625388E+00  0.2312902E+00  0.0000000E+00  0.6666667E-02
   1      -11.170256
   2       -8.087531
   3       -5.532065
   4       -3.403005
   5       -0.661820
   6        2.237526
   7        2.422111
   8        2.944290
   9        3.086149
  10        4.848733
  11        5.047335
  12        6.307452
 
  0.4489347E+00  0.2244876E+00  0.0000000E+00  0.6666667E-02
   1      -11.266157
   2       -7.955870
   3       -5.444185
   4       -3.492972
   5       -0.559848
   6        2.141250
   7        2.354021
   8        2.996752
   9        3.006337
  10        4.734150
  11        4.933751
  12        6.378529
 
  0.4353306E+00  0.2176849E+00  0.0000000E+00  0.6666667E-02
   1      -11.360285
   2       -7.821503
   3       -5.353887
   4       -3.581246
   5       -0.458867
   6        2.048273
   7        2.273251
   8        2.912998
   9        3.084067
  10        4.624888
  11        4.823475
  12        6.430488
 
  0.4217265E+00  0.2108822E+00  0.0000000E+00  0.6666667E-02
   1      -11.452461
   2       -7.684297
   3       -5.261349
   4       -3.667615
   5       -0.359062
   6        1.958818
   7        2.187392
   8        2.835811
   9        3.169645
  10        4.521878
  11        4.716921
  12        6.455397
 
  0.4081224E+00  0.2040796E+00  0.0000000E+00  0.6666667E-02
   1      -11.542545
   2       -7.544473
   3       -5.166770
   4       -3.751909
   5       -0.261045
   6        1.871868
   7        2.099981
   8        2.765782
   9        3.257860
  10        4.426476
  11        4.614310
  12        6.441895
 
  0.3945184E+00  0.1972769E+00  0.0000000E+00  0.6666667E-02
   1      -11.630428
   2       -7.402148
   3       -5.070660
   4       -3.833951
   5       -0.165731
   6        1.789577
   7        2.012571
   8        2.703336
   9        3.343723
  10        4.340710
  11        4.515716
  12        6.384797
 
  0.3809143E+00  0.1904743E+00  0.0000000E+00  0.6666667E-02
   1      -11.716055
   2       -7.257342
   3       -4.973126
   4       -3.913702
   5       -0.073841
   6        1.711013
   7        1.926197
   8        2.649140
   9        3.422184
  10        4.268006
  11        4.421352
  12        6.282624
 
  0.3673102E+00  0.1836716E+00  0.0000000E+00  0.6666667E-02
   1      -11.799281
   2       -7.110277
   3       -4.874602
   4       -3.990823
   5        0.013579
   6        1.635418
   7        1.841376
   8        2.604102
   9        3.485897
  10        4.213346
  11        4.331644
  12        6.137429
 
  0.3537061E+00  0.1768690E+00  0.0000000E+00  0.6666667E-02
   1      -11.879973
   2       -6.960973
   3       -4.775213
   4       -4.065077
   5        0.095668
   6        1.564247
   7        1.758460
   8        2.568989
   9        3.526610
  10        4.182834
  11        4.246918
  12        5.966617
 
  0.3401020E+00  0.1700663E+00  0.0000000E+00  0.6666667E-02
   1      -11.958055
   2       -6.809719
   3       -4.675401
   4       -4.136289
   5        0.171477
   6        1.496839
   7        1.678070
   8        2.544260
   9        3.537889
  10        4.167523
  11        4.178497
  12        5.780950
 
  0.3264980E+00  0.1632637E+00  0.0000000E+00  0.6666667E-02
   1      -12.033472
   2       -6.656559
   3       -4.575335
   4       -4.204229
   5        0.240132
   6        1.434345
   7        1.599720
   8        2.530441
   9        3.521070
  10        4.093963
  11        4.193149
  12        5.596235
 
  0.3128939E+00  0.1564610E+00  0.0000000E+00  0.6666667E-02
   1      -12.106189
   2       -6.502193
   3       -4.475652
   4       -4.268643
   5        0.300695
   6        1.374842
   7        1.523558
   8        2.527141
   9        3.483376
  10        4.026715
  11        4.207402
  12        5.425895
 
  0.2992898E+00  0.1496584E+00  0.0000000E+00  0.6666667E-02
   1      -12.176127
   2       -6.346840
   3       -4.376598
   4       -4.329140
   5        0.352676
   6        1.320261
   7        1.449711
   8        2.534301
   9        3.433177
  10        3.966610
  11        4.195652
  12        5.294387
 
  0.2856857E+00  0.1428557E+00  0.0000000E+00  0.6666667E-02
   1      -12.243241
   2       -6.191003
   3       -4.385217
   4       -4.278396
   5        0.395835
   6        1.270111
   7        1.378149
   8        2.550836
   9        3.376421
  10        3.914489
  11        4.133103
  12        5.222394
 
  0.2720816E+00  0.1360531E+00  0.0000000E+00  0.6666667E-02
   1      -12.307478
   2       -6.035514
   3       -4.436119
   4       -4.181407
   5        0.430302
   6        1.224559
   7        1.308964
   8        2.575609
   9        3.316771
  10        3.872007
  11        4.011760
  12        5.216319
 
  0.2584776E+00  0.1292504E+00  0.0000000E+00  0.6666667E-02
   1      -12.368804
   2       -5.881872
   3       -4.480740
   4       -4.086262
   5        0.456072
   6        1.184043
   7        1.241798
   8        2.605576
   9        3.256268
  10        3.840101
  11        3.843701
  12        5.261018
 
  0.2448735E+00  0.1224478E+00  0.0000000E+00  0.6666667E-02
   1      -12.427149
   2       -5.731768
   3       -4.517360
   4       -3.993172
   5        0.474062
   6        1.148111
   7        1.176687
   8        2.638373
   9        3.195941
  10        3.646564
  11        3.820756
  12        5.339011
 
  0.2312694E+00  0.1156451E+00  0.0000000E+00  0.6666667E-02
   1      -12.482538
   2       -5.588076
   3       -4.543328
   4       -3.902555
   5        0.484734
   6        1.113302
   7        1.117985
   8        2.670902
   9        3.135468
  10        3.436192
  11        3.815542
  12        5.436820
 
  0.2176653E+00  0.1088424E+00  0.0000000E+00  0.6666667E-02
   1      -12.534902
   2       -5.455199
   3       -4.554269
   4       -3.814550
   5        0.489207
   6        1.052067
   7        1.093882
   8        2.700307
   9        3.069533
  10        3.226367
  11        3.826135
  12        5.546160
 
  0.2040612E+00  0.1020398E+00  0.0000000E+00  0.6666667E-02
   1      -12.584241
   2       -5.340016
   3       -4.544061
   4       -3.730070
   5        0.488247
   6        0.991306
   7        1.074289
   8        2.723969
   9        2.950087
  10        3.070218
  11        3.853148
  12        5.660730
 
  0.1904571E+00  0.9523714E-01  0.0000000E+00  0.6666667E-02
   1      -12.630477
   2       -5.249761
   3       -4.505344
   4       -3.648951
   5        0.482986
   6        0.931257
   7        1.060222
   8        2.740717
   9        2.749803
  10        3.000460
  11        3.896748
  12        5.778423
 
  0.1768531E+00  0.8843449E-01  0.0000000E+00  0.6666667E-02
   1      -12.673634
   2       -5.189257
   3       -4.434247
   4       -3.572084
   5        0.474280
   6        0.870991
   7        1.051065
   8        2.537904
   9        2.750038
  10        2.949232
  11        3.954850
  12        5.895126
 
  0.1632490E+00  0.8163184E-01  0.0000000E+00  0.6666667E-02
   1      -12.713670
   2       -5.156125
   3       -4.333518
   4       -3.499593
   5        0.463094
   6        0.809735
   7        1.046450
   8        2.330644
   9        2.752786
  10        2.903977
  11        4.025506
  12        6.008592
 
  0.1496449E+00  0.7482918E-01  0.0000000E+00  0.6666667E-02
   1      -12.750572
   2       -5.143109
   3       -4.211205
   4       -3.431799
   5        0.450274
   6        0.746391
   7        1.045496
   8        2.131934
   9        2.750159
  10        2.862910
  11        4.105455
  12        6.119777
 
  0.1360408E+00  0.6802653E-01  0.0000000E+00  0.6666667E-02
   1      -12.784307
   2       -5.142598
   3       -4.075467
   4       -3.368739
   5        0.436638
   6        0.680197
   7        1.049343
   8        1.946315
   9        2.743654
  10        2.825593
  11        4.191692
  12        6.225745
 
  0.1224367E+00  0.6122388E-01  0.0000000E+00  0.6666667E-02
   1      -12.814875
   2       -5.149142
   3       -3.933299
   4       -3.311046
   5        0.422736
   6        0.608475
   7        1.055263
   8        1.776765
   9        2.734537
  10        2.791866
  11        4.280582
  12        6.331642
 
  0.1088327E+00  0.5442122E-01  0.0000000E+00  0.6666667E-02
   1      -12.842259
   2       -5.159213
   3       -3.789584
   4       -3.258827
   5        0.409143
   6        0.530913
   7        1.063620
   8        1.625376
   9        2.724027
  10        2.761693
  11        4.369039
  12        6.410365
 
  0.9522857E-01  0.4761857E-01  0.0000000E+00  0.6666667E-02
   1      -12.866520
   2       -5.170733
   3       -3.648569
   4       -3.212502
   5        0.395978
   6        0.446696
   7        1.073128
   8        1.494756
   9        2.712930
  10        2.735018
  11        4.453549
  12        6.431408
 
  0.8162449E-01  0.4081592E-01  0.0000000E+00  0.6666667E-02
   1      -12.887506
   2       -5.182176
   3       -3.513341
   4       -3.171894
   5        0.357799
   6        0.384241
   7        1.084220
   8        1.386923
   9        2.702158
  10        2.711921
  11        4.531588
  12        6.456026
 
  0.6802041E-01  0.3401327E-01  0.0000000E+00  0.6666667E-02
   1      -12.905324
   2       -5.192825
   3       -3.388301
   4       -3.137646
   5        0.267348
   6        0.373794